{"result": "AMS-GUI, the integrated Graphical User Interface of the Amsterdam Modeling Suite, is designed to facilitate the setup, execution, and analysis of modeling tasks. It serves as a user-friendly platform for the AMS driver, offering detailed instructions for use on both laptops and workstations. This comprehensive tool streamlines the process of managing modeling tasks by providing an intuitive interface that integrates seamlessly with the AMS framework, making it an essential component for users looking to efficiently handle their modeling projects.", "input": "\nYou are a helpful assistant responsible for generating a comprehensive summary of the data provided below.\nGiven one or two entities, and a list of descriptions, all related to the same entity or group of entities.\nPlease concatenate all of these into a single, comprehensive description. Make sure to include information collected from all the descriptions.\nIf the provided descriptions are contradictory, please resolve the contradictions and provide a single, coherent summary.\nMake sure it is written in third person, and include the entity names so we have the full context.\n\n#######\n-Data-\nEntities: \"AMS-GUI\"\nDescription List: [\"AMS comes with an integrated Graphical User Interface that facilitates setting up, running, and analyzing modeling tasks\", \"AMS integrated GUI\", \"AMS-GUI refers to a graphical user interface for the AMS driver, providing detailed instructions for use on laptops or workstations\", \"Integrated Graphical User Interface of the Amsterdam Modeling Suite for setting up, running, and analyzing modeling tasks\"]\n#######\nOutput:\n", "parameters": {"model": "gpt-4-turbo-preview", "temperature": 0.0, "frequency_penalty": 0.0, "presence_penalty": 0.0, "top_p": 1.0, "max_tokens": 500, "n": 1}, "history": null}