{"result": "SCM is a company known for developing the Amsterdam Modeling Suite, which includes AMS and its GUI component. As the organization responsible for the development and support of the AMS software suite, SCM offers a range of resources to its users, including tutorials, workshops, FAQs, and a knowledge bank available on their website. This comprehensive approach ensures that users have access to extensive support and information, facilitating the effective use of the AMS software suite.", "input": "\nYou are a helpful assistant responsible for generating a comprehensive summary of the data provided below.\nGiven one or two entities, and a list of descriptions, all related to the same entity or group of entities.\nPlease concatenate all of these into a single, comprehensive description. Make sure to include information collected from all the descriptions.\nIf the provided descriptions are contradictory, please resolve the contradictions and provide a single, coherent summary.\nMake sure it is written in third person, and include the entity names so we have the full context.\n\n#######\n-Data-\nEntities: \"SCM\"\nDescription List: [\"SCM is a company that develops the Amsterdam Modeling Suite, including AMS and its GUI component\", \"SCM is the organization responsible for the development and support of the AMS software suite, offering tutorials, workshops, FAQs, and a knowledge bank on their website)<|COMPLETE|><|COMPLETE|>\"]\n#######\nOutput:\n", "parameters": {"model": "gpt-4-turbo-preview", "temperature": 0.0, "frequency_penalty": 0.0, "presence_penalty": 0.0, "top_p": 1.0, "max_tokens": 500, "n": 1}, "history": null}