{"result": "The Amsterdam Modeling Suite (AMS), recommended as an alternative to Materials Studio for simulations, is a comprehensive modeling suite that includes engines like ADF, BAND, DFTB, and MOPAC. It has been updated to version 2024 on Puhti and Mahti, indicating ongoing support and development. Prior to this, version 2023.104 was also updated on Mahti and Puhti, including updates to the AMS-GUI. This suite is recognized for its robust capabilities in the field of computational chemistry and materials science, providing researchers and professionals with advanced tools for their simulation needs.", "input": "\nYou are a helpful assistant responsible for generating a comprehensive summary of the data provided below.\nGiven one or two entities, and a list of descriptions, all related to the same entity or group of entities.\nPlease concatenate all of these into a single, comprehensive description. Make sure to include information collected from all the descriptions.\nIf the provided descriptions are contradictory, please resolve the contradictions and provide a single, coherent summary.\nMake sure it is written in third person, and include the entity names so we have the full context.\n\n#######\n-Data-\nEntities: \"AMS\"\nDescription List: [\"\", \"AMS is recommended as another alternative to Materials Studio for simulations\", \"Amsterdam Modeling Suite, updated to version 2024 on Puhti and Mahti\", \"Modelling suite providing engines like ADF, BAND, DFTB, and MOPAC\", \"Version 2023.104 updated on Mahti and Puhti, with the AMS-GUI also updated\"]\n#######\nOutput:\n", "parameters": {"model": "gpt-4-turbo-preview", "temperature": 0.0, "frequency_penalty": 0.0, "presence_penalty": 0.0, "top_p": 1.0, "max_tokens": 500, "n": 1}, "history": null}